Program Version,EnergyPlus, Version 9.6.0-4b123cf80f, YMD=2022.05.22 02:11
1,5,Environment Title[],Latitude[deg],Longitude[deg],Time Zone[],Elevation[m]
2,8,Day of Simulation[],Month[],Day of Month[],DST Indicator[1=yes 0=no],Hour[],StartMinute[],EndMinute[],DayType
3,5,Cumulative Day of Simulation[],Month[],Day of Month[],DST Indicator[1=yes 0=no],DayType  ! When Daily Report Variables Requested
4,2,Cumulative Days of Simulation[],Month[]  ! When Monthly Report Variables Requested
5,1,Cumulative Days of Simulation[] ! When Run Period Report Variables Requested
6,1,Calendar Year of Simulation[] ! When Annual Report Variables Requested
128,1,OFFICESHOEBOX_BDC533DE,Zone Lights Electricity Energy [J] !Hourly
202,1,OFFICESHOEBOX_BDC533DE,Zone Electric Equipment Electricity Energy [J] !Hourly
484,1,OFFICESHOEBOX_BDC533DE IDEAL LOADS AIR SYSTEM,Zone Ideal Loads Supply Air Total Heating Energy [J] !Hourly
533,1,OFFICESHOEBOX_BDC533DE IDEAL LOADS AIR SYSTEM,Zone Ideal Loads Supply Air Total Cooling Energy [J] !Hourly
End of Data Dictionary
1,RUN PERIOD 1,  42.37, -71.02,  -5.00,   6.00
2,1, 1, 1, 0, 1, 0.00,60.00,Sunday
128,94937.59800000001
202,412687.926
484,2811877.1872134996
533,0.0
2,1, 1, 1, 0, 2, 0.00,60.00,Sunday
128,94937.59800000001
202,412687.926
484,2234905.435184653
533,0.0
2,1, 1, 1, 0, 3, 0.00,60.00,Sunday
128,94937.59800000001
202,412687.926
484,2317589.166693084
533,0.0
2,1, 1, 1, 0, 4, 0.00,60.00,Sunday
128,94937.59800000001
202,412687.926
484,2395595.152137688
533,0.0
2,1, 1, 1, 0, 5, 0.00,60.00,Sunday
128,94937.59800000001
202,412687.926
484,2435346.7197889355
533,0.0
2,1, 1, 1, 0, 6, 0.00,60.00,Sunday
128,85975.59697766171
202,412687.926
484,2485902.4387738407
533,0.0
2,1, 1, 1, 0, 7, 0.00,60.00,Sunday
128,85975.59697766171
202,412687.926
484,2546794.301270675
533,0.0
2,1, 1, 1, 0, 8, 0.00,60.00,Sunday
128,81281.12202261864
202,412687.926
484,2592356.9661760265
533,0.0
2,1, 1, 1, 0, 9, 0.00,60.00,Sunday
128,48584.23854587874
202,412687.926
484,2335844.7313076826
533,0.0
2,1, 1, 1, 0,10, 0.00,60.00,Sunday
128,25792.679093298513
202,412687.926
484,1660933.5250134417
533,0.0
2,1, 1, 1, 0,11, 0.00,60.00,Sunday
128,25792.679093298513
202,412687.926
484,1134546.609771219
533,0.0
2,1, 1, 1, 0,12, 0.00,60.00,Sunday
128,25792.679093298513
202,412687.926
484,134592.0431867496
533,0.0
2,1, 1, 1, 0,13, 0.00,60.00,Sunday
128,25792.679093298513
202,412687.926
484,0.0
533,0.0
2,1, 1, 1, 0,14, 0.00,60.00,Sunday
128,25792.679093298513
202,412687.926
484,0.0
533,0.0
2,1, 1, 1, 0,15, 0.00,60.00,Sunday
128,25792.679093298513
202,412687.926
484,0.0
533,0.0
2,1, 1, 1, 0,16, 0.00,60.00,Sunday
128,51671.35374284069
202,412687.926
484,0.0
533,0.0
2,1, 1, 1, 0,17, 0.00,60.00,Sunday
128,84648.69719351806
202,412687.926
484,181499.44393590285
533,0.0
2,1, 1, 1, 0,18, 0.00,60.00,Sunday
128,85975.59697766171
202,412687.926
484,934118.399383788
533,0.0
2,1, 1, 1, 0,19, 0.00,60.00,Sunday
128,94937.59800000001
202,412687.926
484,1538234.9938251544
533,0.0
2,1, 1, 1, 0,20, 0.00,60.00,Sunday
128,94937.59800000001
202,412687.926
484,1992727.0931990484
533,0.0
2,1, 1, 1, 0,21, 0.00,60.00,Sunday
128,94937.59800000001
202,412687.926
484,2388375.088309262
533,0.0
2,1, 1, 1, 0,22, 0.00,60.00,Sunday
128,94937.59800000001
202,412687.926
484,2754047.419723069
533,0.0
2,1, 1, 1, 0,23, 0.00,60.00,Sunday
128,94937.59800000001
202,412687.926
484,3109191.386562313
533,0.0
2,1, 1, 1, 0,24, 0.00,60.00,Sunday
128,94937.59800000001
202,412687.926
484,3467912.8264269335
533,0.0
2,2, 1, 2, 0, 1, 0.00,60.00,Monday
128,94937.59800000001
202,550250.5680000001
484,3612245.6944087013
533,0.0
2,2, 1, 2, 0, 2, 0.00,60.00,Monday
128,94937.59800000001
202,550250.5680000001
484,3777875.263837616
533,0.0
2,2, 1, 2, 0, 3, 0.00,60.00,Monday
128,94937.59800000001
202,550250.5680000001
484,3985236.915947076
533,0.0
2,2, 1, 2, 0, 4, 0.00,60.00,Monday
128,94937.59800000001
202,550250.5680000001
484,4112339.3280810886
533,0.0
2,2, 1, 2, 0, 5, 0.00,60.00,Monday
128,94937.59800000001
202,550250.5680000001
484,7071315.821425484
533,0.0
2,2, 1, 2, 0, 6, 0.00,60.00,Monday
128,189875.19600000003
202,550250.5680000001
484,9530379.203481276
533,0.0
2,2, 1, 2, 0, 7, 0.00,60.00,Monday
128,171951.19395532343
202,550250.5680000001
484,8821530.741918303
533,0.0
2,2, 1, 2, 0, 8, 0.00,60.00,Monday
128,446550.3286380345
202,550250.5680000001
484,7483572.7167273685
533,0.0
2,2, 1, 2, 0, 9, 0.00,60.00,Monday
128,525798.4099522259
202,1238063.7780000002
484,4994368.345138349
533,0.0
2,2, 1, 2, 0,10, 0.00,60.00,Monday
128,464268.22367937316
202,1238063.7780000002
484,3464697.612512334
533,0.0
2,2, 1, 2, 0,11, 0.00,60.00,Monday
128,464268.22367937316
202,1238063.7780000002
484,2805018.177842245
533,0.0
2,2, 1, 2, 0,12, 0.00,60.00,Monday
128,464268.22367937316
202,1238063.7780000002
484,2583615.445297895
533,0.0
2,2, 1, 2, 0,13, 0.00,60.00,Monday
128,464268.22367937316
202,1100501.1360000002
484,2378945.5906460765
533,0.0
2,2, 1, 2, 0,14, 0.00,60.00,Monday
128,464268.22367937316
202,1238063.7780000002
484,1229572.1872249427
533,0.0
2,2, 1, 2, 0,15, 0.00,60.00,Monday
128,490057.66989458
202,1238063.7780000002
484,1160097.7903419114
533,0.0
2,2, 1, 2, 0,16, 0.00,60.00,Monday
128,1010475.539889337
202,1238063.7780000002
484,1150272.0966917227
533,0.0
2,2, 1, 2, 0,17, 0.00,60.00,Monday
128,1523778.2941444302
202,1238063.7780000002
484,1250754.8771146059
533,0.0
2,2, 1, 2, 0,18, 0.00,60.00,Monday
128,859755.9697766172
202,687813.2100000001
484,2373574.4337061043
533,0.0
2,2, 1, 2, 0,19, 0.00,60.00,Monday
128,515853.5818659704
202,550250.5680000001
484,2892662.992332786
533,0.0
2,2, 1, 2, 0,20, 0.00,60.00,Monday
128,515853.5818659704
202,550250.5680000001
484,3056319.7635275833
533,0.0
2,2, 1, 2, 0,21, 0.00,60.00,Monday
128,343902.38791064685
202,550250.5680000001
484,3210899.8650593385
533,0.0
2,2, 1, 2, 0,22, 0.00,60.00,Monday
128,343902.38791064685
202,550250.5680000001
484,3210221.979019722
533,0.0
2,2, 1, 2, 0,23, 0.00,60.00,Monday
128,171951.19395532343
202,550250.5680000001
484,0.0
533,0.0
2,2, 1, 2, 0,24, 0.00,60.00,Monday
128,85975.59697766171
202,550250.5680000001
484,0.0
533,0.0
2,3, 1, 3, 0, 1, 0.00,60.00,Tuesday
128,94937.59800000001
202,550250.5680000001
484,0.0
533,0.0
2,3, 1, 3, 0, 2, 0.00,60.00,Tuesday
128,94937.59800000001
202,550250.5680000001
484,107240.43491264971
533,0.0
2,3, 1, 3, 0, 3, 0.00,60.00,Tuesday
128,94937.59800000001
202,550250.5680000001
484,502841.17605722026
533,0.0
2,3, 1, 3, 0, 4, 0.00,60.00,Tuesday
128,94937.59800000001
202,550250.5680000001
484,811625.0137371286
533,0.0
2,3, 1, 3, 0, 5, 0.00,60.00,Tuesday
128,94937.59800000001
202,550250.5680000001
484,3218288.3516389485
533,0.0
2,3, 1, 3, 0, 6, 0.00,60.00,Tuesday
128,189875.19600000003
202,550250.5680000001
484,5616517.397267632
533,0.0
2,3, 1, 3, 0, 7, 0.00,60.00,Tuesday
128,171951.19395532343
202,550250.5680000001
484,5385881.79232138
533,0.0
2,3, 1, 3, 0, 8, 0.00,60.00,Tuesday
128,492546.6912403959
202,550250.5680000001
484,4546279.676462058
533,0.0
2,3, 1, 3, 0, 9, 0.00,60.00,Tuesday
128,1069095.8022222936
202,1238063.7780000002
484,2720208.8454247583
533,0.0
2,3, 1, 3, 0,10, 0.00,60.00,Tuesday
128,548695.9005194505
202,1238063.7780000002
484,2283746.954020949
533,0.0
2,3, 1, 3, 0,11, 0.00,60.00,Tuesday
128,540319.2960971033
202,1238063.7780000002
484,1936940.4047858347
533,0.0
2,3, 1, 3, 0,12, 0.00,60.00,Tuesday
128,825866.1228332513
202,1238063.7780000002
484,1642880.1156950146
533,0.0
2,3, 1, 3, 0,13, 0.00,60.00,Tuesday
128,902008.9919261585
202,1100501.1360000002
484,1805325.6311796426
533,0.0
2,3, 1, 3, 0,14, 0.00,60.00,Tuesday
128,1013390.8825276688
202,1238063.7780000002
484,1238260.7153087002
533,0.0
2,3, 1, 3, 0,15, 0.00,60.00,Tuesday
128,1176696.2702378677
202,1238063.7780000002
484,1046035.1620591831
533,0.0
2,3, 1, 3, 0,16, 0.00,60.00,Tuesday
128,1371612.0082399782
202,1238063.7780000002
484,924989.321209154
533,0.0
2,3, 1, 3, 0,17, 0.00,60.00,Tuesday
128,1536373.5808100416
202,1238063.7780000002
484,814251.3787451657
533,0.0
2,3, 1, 3, 0,18, 0.00,60.00,Tuesday
128,859755.9697766172
202,687813.2100000001
484,1746671.6331556945
533,0.0
2,3, 1, 3, 0,19, 0.00,60.00,Tuesday
128,515853.5818659704
202,550250.5680000001
484,2097499.705882441
533,0.0
2,3, 1, 3, 0,20, 0.00,60.00,Tuesday
128,515853.5818659704
202,550250.5680000001
484,2182536.317257737
533,0.0
2,3, 1, 3, 0,21, 0.00,60.00,Tuesday
128,343902.38791064685
202,550250.5680000001
484,2438851.2025699075
533,0.0
2,3, 1, 3, 0,22, 0.00,60.00,Tuesday
128,343902.38791064685
202,550250.5680000001
484,2556738.5498567135
533,0.0
2,3, 1, 3, 0,23, 0.00,60.00,Tuesday
128,171951.19395532343
202,550250.5680000001
484,0.0
533,0.0
2,3, 1, 3, 0,24, 0.00,60.00,Tuesday
128,85975.59697766171
202,550250.5680000001
484,0.0
533,0.0
2,4, 1, 4, 0, 1, 0.00,60.00,Wednesday
128,94937.59800000001
202,550250.5680000001
484,0.0
533,0.0
2,4, 1, 4, 0, 2, 0.00,60.00,Wednesday
128,94937.59800000001
202,550250.5680000001
484,0.0
533,0.0
2,4, 1, 4, 0, 3, 0.00,60.00,Wednesday
128,94937.59800000001
202,550250.5680000001
484,89410.24655164964
533,0.0
2,4, 1, 4, 0, 4, 0.00,60.00,Wednesday
128,94937.59800000001
202,550250.5680000001
484,564492.7128989641
533,0.0
2,4, 1, 4, 0, 5, 0.00,60.00,Wednesday
128,94937.59800000001
202,550250.5680000001
484,3153849.119873205
533,0.0
2,4, 1, 4, 0, 6, 0.00,60.00,Wednesday
128,189875.19600000003
202,550250.5680000001
484,5676203.046537295
533,0.0
2,4, 1, 4, 0, 7, 0.00,60.00,Wednesday
128,171951.19395532343
202,550250.5680000001
484,5525510.057105937
533,0.0
2,4, 1, 4, 0, 8, 0.00,60.00,Wednesday
128,487364.9444439959
202,550250.5680000001
484,4422153.5811972115
533,0.0
2,4, 1, 4, 0, 9, 0.00,60.00,Wednesday
128,1179891.9109534721
202,1238063.7780000002
484,2691035.303295443
533,0.0
2,4, 1, 4, 0,10, 0.00,60.00,Wednesday
128,933272.9878525041
202,1238063.7780000002
484,2547237.5607865793
533,0.0
2,4, 1, 4, 0,11, 0.00,60.00,Wednesday
128,544885.8010783758
202,1238063.7780000002
484,2286929.2396025015
533,0.0
2,4, 1, 4, 0,12, 0.00,60.00,Wednesday
128,464268.22367937316
202,1238063.7780000002
484,1503169.8492185588
533,0.0
2,4, 1, 4, 0,13, 0.00,60.00,Wednesday
128,464268.22367937316
202,1100501.1360000002
484,875075.7850411773
533,0.0
2,4, 1, 4, 0,14, 0.00,60.00,Wednesday
128,464268.22367937316
202,1238063.7780000002
484,16090.420142133902
533,0.0
2,4, 1, 4, 0,15, 0.00,60.00,Wednesday
128,464268.22367937316
202,1238063.7780000002
484,0.0
533,0.0
2,4, 1, 4, 0,16, 0.00,60.00,Wednesday
128,847124.6871534204
202,1238063.7780000002
484,56608.03129369917
533,0.0
2,4, 1, 4, 0,17, 0.00,60.00,Wednesday
128,1521372.6319261584
202,1238063.7780000002
484,470319.4678161219
533,0.0
2,4, 1, 4, 0,18, 0.00,60.00,Wednesday
128,859755.9697766172
202,687813.2100000001
484,1953931.0589985454
533,0.0
2,4, 1, 4, 0,19, 0.00,60.00,Wednesday
128,515853.5818659704
202,550250.5680000001
484,2701709.074981849
533,0.0
2,4, 1, 4, 0,20, 0.00,60.00,Wednesday
128,515853.5818659704
202,550250.5680000001
484,3025331.2725023255
533,0.0
2,4, 1, 4, 0,21, 0.00,60.00,Wednesday
128,343902.38791064685
202,550250.5680000001
484,3420634.691605214
533,0.0
2,4, 1, 4, 0,22, 0.00,60.00,Wednesday
128,343902.38791064685
202,550250.5680000001
484,3696156.1255979007
533,0.0
2,4, 1, 4, 0,23, 0.00,60.00,Wednesday
128,171951.19395532343
202,550250.5680000001
484,0.0
533,0.0
2,4, 1, 4, 0,24, 0.00,60.00,Wednesday
128,85975.59697766171
202,550250.5680000001
484,93964.3590016393
533,0.0
2,5, 1, 5, 0, 1, 0.00,60.00,Thursday
128,94937.59800000001
202,550250.5680000001
484,1038389.6183867145
533,0.0
2,5, 1, 5, 0, 2, 0.00,60.00,Thursday
128,94937.59800000001
202,550250.5680000001
484,1808582.4982529578
533,0.0
2,5, 1, 5, 0, 3, 0.00,60.00,Thursday
128,94937.59800000001
202,550250.5680000001
484,2371175.4124644687
533,0.0
2,5, 1, 5, 0, 4, 0.00,60.00,Thursday
128,94937.59800000001
202,550250.5680000001
484,2830602.044567744
533,0.0
2,5, 1, 5, 0, 5, 0.00,60.00,Thursday
128,94937.59800000001
202,550250.5680000001
484,5759926.946242781
533,0.0
2,5, 1, 5, 0, 6, 0.00,60.00,Thursday
128,189875.19600000003
202,550250.5680000001
484,8166270.91794965
533,0.0
2,5, 1, 5, 0, 7, 0.00,60.00,Thursday
128,171951.19395532343
202,550250.5680000001
484,7736115.674531276
533,0.0
2,5, 1, 5, 0, 8, 0.00,60.00,Thursday
128,432718.70895875274
202,550250.5680000001
484,6531538.691644773
533,0.0
2,5, 1, 5, 0, 9, 0.00,60.00,Thursday
128,492148.72597867274
202,1238063.7780000002
484,4293523.4040720165
533,0.0
2,5, 1, 5, 0,10, 0.00,60.00,Thursday
128,464268.22367937316
202,1238063.7780000002
484,3090413.7337455987
533,0.0
2,5, 1, 5, 0,11, 0.00,60.00,Thursday
128,464268.22367937316
202,1238063.7780000002
484,2123116.473767239
533,0.0
2,5, 1, 5, 0,12, 0.00,60.00,Thursday
128,464268.22367937316
202,1238063.7780000002
484,1144403.026561521
533,0.0
2,5, 1, 5, 0,13, 0.00,60.00,Thursday
128,464268.22367937316
202,1100501.1360000002
484,615910.0205511206
533,0.0
2,5, 1, 5, 0,14, 0.00,60.00,Thursday
128,464268.22367937316
202,1238063.7780000002
484,0.0
533,0.0
2,5, 1, 5, 0,15, 0.00,60.00,Thursday
128,464268.22367937316
202,1238063.7780000002
484,0.0
533,0.0
2,5, 1, 5, 0,16, 0.00,60.00,Thursday
128,755072.2103389918
202,1238063.7780000002
484,0.0
533,0.0
2,5, 1, 5, 0,17, 0.00,60.00,Thursday
128,1517766.5991217461
202,1238063.7780000002
484,416960.3047031661
533,0.0
2,5, 1, 5, 0,18, 0.00,60.00,Thursday
128,859755.9697766172
202,687813.2100000001
484,2095357.6323782552
533,0.0
2,5, 1, 5, 0,19, 0.00,60.00,Thursday
128,515853.5818659704
202,550250.5680000001
484,2937529.065901299
533,0.0
2,5, 1, 5, 0,20, 0.00,60.00,Thursday
128,515853.5818659704
202,550250.5680000001
484,3300859.7468651803
533,0.0
2,5, 1, 5, 0,21, 0.00,60.00,Thursday
128,343902.38791064685
202,550250.5680000001
484,3692359.581037417
533,0.0
2,5, 1, 5, 0,22, 0.00,60.00,Thursday
128,343902.38791064685
202,550250.5680000001
484,3961658.929219242
533,0.0
2,5, 1, 5, 0,23, 0.00,60.00,Thursday
128,171951.19395532343
202,550250.5680000001
484,0.0
533,0.0
2,5, 1, 5, 0,24, 0.00,60.00,Thursday
128,85975.59697766171
202,550250.5680000001
484,232176.81217985583
533,0.0
2,6, 1, 6, 0, 1, 0.00,60.00,Friday
128,94937.59800000001
202,550250.5680000001
484,1358695.0843247382
533,0.0
2,6, 1, 6, 0, 2, 0.00,60.00,Friday
128,94937.59800000001
202,550250.5680000001
484,2074149.2924396077
533,0.0
2,6, 1, 6, 0, 3, 0.00,60.00,Friday
128,94937.59800000001
202,550250.5680000001
484,2543468.8161187624
533,0.0
2,6, 1, 6, 0, 4, 0.00,60.00,Friday
128,94937.59800000001
202,550250.5680000001
484,2991076.9144539824
533,0.0
2,6, 1, 6, 0, 5, 0.00,60.00,Friday
128,94937.59800000001
202,550250.5680000001
484,5903450.740243761
533,0.0
2,6, 1, 6, 0, 6, 0.00,60.00,Friday
128,189875.19600000003
202,550250.5680000001
484,8232314.0217539165
533,0.0
2,6, 1, 6, 0, 7, 0.00,60.00,Friday
128,171951.19395532343
202,550250.5680000001
484,7775550.847078599
533,0.0
2,6, 1, 6, 0, 8, 0.00,60.00,Friday
128,439076.5460950569
202,550250.5680000001
484,6616204.686678761
533,0.0
2,6, 1, 6, 0, 9, 0.00,60.00,Friday
128,512366.91412478336
202,1238063.7780000002
484,4232235.204901896
533,0.0
2,6, 1, 6, 0,10, 0.00,60.00,Friday
128,464268.22367937316
202,1238063.7780000002
484,2772017.028549785
533,0.0
2,6, 1, 6, 0,11, 0.00,60.00,Friday
128,464268.22367937316
202,1238063.7780000002
484,1690035.5521862565
533,0.0
2,6, 1, 6, 0,12, 0.00,60.00,Friday
128,464268.22367937316
202,1238063.7780000002
484,915733.6329763106
533,0.0
2,6, 1, 6, 0,13, 0.00,60.00,Friday
128,464268.22367937316
202,1100501.1360000002
484,493146.1233720307
533,0.0
2,6, 1, 6, 0,14, 0.00,60.00,Friday
128,464268.22367937316
202,1238063.7780000002
484,0.0
533,0.0
2,6, 1, 6, 0,15, 0.00,60.00,Friday
128,484653.7634962069
202,1238063.7780000002
484,0.0
533,0.0
2,6, 1, 6, 0,16, 0.00,60.00,Friday
128,1046987.5887309038
202,1238063.7780000002
484,3806.635917432385
533,0.0
2,6, 1, 6, 0,17, 0.00,60.00,Friday
128,1514049.5904336693
202,1238063.7780000002
484,234188.88046465465
533,0.0
2,6, 1, 6, 0,18, 0.00,60.00,Friday
128,859755.9697766172
202,687813.2100000001
484,1564373.835862099
533,0.0
2,6, 1, 6, 0,19, 0.00,60.00,Friday
128,515853.5818659704
202,550250.5680000001
484,2235630.8208108298
533,0.0
2,6, 1, 6, 0,20, 0.00,60.00,Friday
128,515853.5818659704
202,550250.5680000001
484,2470161.933410299
533,0.0
2,6, 1, 6, 0,21, 0.00,60.00,Friday
128,343902.38791064685
202,550250.5680000001
484,2754464.5684945513
533,0.0
2,6, 1, 6, 0,22, 0.00,60.00,Friday
128,343902.38791064685
202,550250.5680000001
484,2952533.4576916522
533,0.0
2,6, 1, 6, 0,23, 0.00,60.00,Friday
128,171951.19395532343
202,550250.5680000001
484,0.0
533,0.0
2,6, 1, 6, 0,24, 0.00,60.00,Friday
128,85975.59697766171
202,550250.5680000001
484,0.0
533,0.0
2,7, 1, 7, 0, 1, 0.00,60.00,Saturday
128,94937.59800000001
202,412687.926
484,0.0
533,0.0
2,7, 1, 7, 0, 2, 0.00,60.00,Saturday
128,94937.59800000001
202,412687.926
484,134325.06968819606
533,0.0
2,7, 1, 7, 0, 3, 0.00,60.00,Saturday
128,94937.59800000001
202,412687.926
484,696608.3020987236
533,0.0
2,7, 1, 7, 0, 4, 0.00,60.00,Saturday
128,94937.59800000001
202,412687.926
484,1051002.8221132823
533,0.0
2,7, 1, 7, 0, 5, 0.00,60.00,Saturday
128,94937.59800000001
202,412687.926
484,3526418.207582533
533,0.0
2,7, 1, 7, 0, 6, 0.00,60.00,Saturday
128,94937.59800000001
202,412687.926
484,6002754.147092471
533,0.0
2,7, 1, 7, 0, 7, 0.00,60.00,Saturday
128,171951.19395532343
202,550250.5680000001
484,5667172.24867956
533,0.0
2,7, 1, 7, 0, 8, 0.00,60.00,Saturday
128,155091.0209140175
202,550250.5680000001
484,4935816.013779656
533,0.0
2,7, 1, 7, 0, 9, 0.00,60.00,Saturday
128,234882.08807293948
202,687813.2100000001
484,3832741.5531058377
533,0.0
2,7, 1, 7, 0,10, 0.00,60.00,Saturday
128,154756.07455979113
202,687813.2100000001
484,2839563.7108467817
533,0.0
2,7, 1, 7, 0,11, 0.00,60.00,Saturday
128,154756.07455979113
202,687813.2100000001
484,2185721.8576954883
533,0.0
2,7, 1, 7, 0,12, 0.00,60.00,Saturday
128,154756.07455979113
202,687813.2100000001
484,1687980.804377499
533,0.0
2,7, 1, 7, 0,13, 0.00,60.00,Saturday
128,77378.03727989557
202,481469.2469999999
484,1772405.678778958
533,0.0
2,7, 1, 7, 0,14, 0.00,60.00,Saturday
128,77378.03727989557
202,481469.2469999999
484,1523985.4303289382
533,0.0
2,7, 1, 7, 0,15, 0.00,60.00,Saturday
128,173052.03371732816
202,481469.2469999999
484,1703189.8685508603
533,0.0
2,7, 1, 7, 0,16, 0.00,60.00,Saturday
128,227905.99521861668
202,481469.2469999999
484,1875206.8518712614
533,0.0
2,7, 1, 7, 0,17, 0.00,60.00,Saturday
128,255403.7938026461
202,481469.2469999999
484,2028499.504278805
533,0.0
2,7, 1, 7, 0,18, 0.00,60.00,Saturday
128,85975.59697766171
202,412687.926
484,0.0
533,0.0
2,7, 1, 7, 0,19, 0.00,60.00,Saturday
128,85975.59697766171
202,412687.926
484,0.0
533,0.0
2,7, 1, 7, 0,20, 0.00,60.00,Saturday
128,94937.59800000001
202,412687.926
484,0.0
533,0.0
2,7, 1, 7, 0,21, 0.00,60.00,Saturday
128,94937.59800000001
202,412687.926
484,0.0
533,0.0
2,7, 1, 7, 0,22, 0.00,60.00,Saturday
128,94937.59800000001
202,412687.926
484,0.0
533,0.0
2,7, 1, 7, 0,23, 0.00,60.00,Saturday
128,94937.59800000001
202,412687.926
484,0.0
533,0.0
2,7, 1, 7, 0,24, 0.00,60.00,Saturday
128,94937.59800000001
202,412687.926
484,0.0
533,0.0
2,8, 1, 8, 0, 1, 0.00,60.00,Sunday
128,94937.59800000001
202,412687.926
484,80101.91199768947
533,0.0
2,8, 1, 8, 0, 2, 0.00,60.00,Sunday
128,94937.59800000001
202,412687.926
484,361186.7204974037
533,0.0
2,8, 1, 8, 0, 3, 0.00,60.00,Sunday
128,94937.59800000001
202,412687.926
484,573798.961641502
533,0.0
2,8, 1, 8, 0, 4, 0.00,60.00,Sunday
128,94937.59800000001
202,412687.926
484,928685.0255522139
533,0.0
2,8, 1, 8, 0, 5, 0.00,60.00,Sunday
128,94937.59800000001
202,412687.926
484,1268407.4171497799
533,0.0
2,8, 1, 8, 0, 6, 0.00,60.00,Sunday
128,85975.59697766171
202,412687.926
484,1464343.1316092983
533,0.0
2,8, 1, 8, 0, 7, 0.00,60.00,Sunday
128,85975.59697766171
202,412687.926
484,1556467.7670478697
533,0.0
2,8, 1, 8, 0, 8, 0.00,60.00,Sunday
128,82754.54252743302
202,412687.926
484,1630968.46376991
533,0.0
2,8, 1, 8, 0, 9, 0.00,60.00,Sunday
128,73261.75373787919
202,412687.926
484,1658888.0318589166
533,0.0
2,8, 1, 8, 0,10, 0.00,60.00,Sunday
128,57606.343682564555
202,412687.926
484,1629130.8483512748
533,0.0
2,8, 1, 8, 0,11, 0.00,60.00,Sunday
128,28371.71517057829
202,412687.926
484,1498980.2604917828
533,0.0
2,8, 1, 8, 0,12, 0.00,60.00,Sunday
128,25792.679093298513
202,412687.926
484,1380251.9993854936
533,0.0
2,8, 1, 8, 0,13, 0.00,60.00,Sunday
128,25792.679093298513
202,412687.926
484,1301094.5352153748
533,0.0
2,8, 1, 8, 0,14, 0.00,60.00,Sunday
128,27982.093013909896
202,412687.926
484,1386985.5921856626
533,0.0
2,8, 1, 8, 0,15, 0.00,60.00,Sunday
128,46921.87958399084
202,412687.926
484,1646772.081523372
533,0.0
2,8, 1, 8, 0,16, 0.00,60.00,Sunday
128,68197.44675256472
202,412687.926
484,2011866.3087445714
533,0.0
2,8, 1, 8, 0,17, 0.00,60.00,Sunday
128,84175.53492358788
202,412687.926
484,2357779.423406081
533,0.0
2,8, 1, 8, 0,18, 0.00,60.00,Sunday
128,85975.59697766171
202,412687.926
484,2681200.7215727177
533,0.0
2,8, 1, 8, 0,19, 0.00,60.00,Sunday
128,94937.59800000001
202,412687.926
484,3097110.0625353632
533,0.0
2,8, 1, 8, 0,20, 0.00,60.00,Sunday
128,94937.59800000001
202,412687.926
484,3405932.664822823
533,0.0
2,8, 1, 8, 0,21, 0.00,60.00,Sunday
128,94937.59800000001
202,412687.926
484,3680344.2256135982
533,0.0
2,8, 1, 8, 0,22, 0.00,60.00,Sunday
128,94937.59800000001
202,412687.926
484,3923592.3807845125
533,0.0
2,8, 1, 8, 0,23, 0.00,60.00,Sunday
128,94937.59800000001
202,412687.926
484,4115950.986035299
533,0.0
2,8, 1, 8, 0,24, 0.00,60.00,Sunday
128,94937.59800000001
202,412687.926
484,4306342.366577986
533,0.0
2,9, 1, 9, 0, 1, 0.00,60.00,Monday
128,94937.59800000001
202,550250.5680000001
484,4399916.805384973
533,0.0
2,9, 1, 9, 0, 2, 0.00,60.00,Monday
128,94937.59800000001
202,550250.5680000001
484,4564674.972210203
533,0.0
2,9, 1, 9, 0, 3, 0.00,60.00,Monday
128,94937.59800000001
202,550250.5680000001
484,4812590.581453748
533,0.0
2,9, 1, 9, 0, 4, 0.00,60.00,Monday
128,94937.59800000001
202,550250.5680000001
484,5108810.433155547
533,0.0
2,9, 1, 9, 0, 5, 0.00,60.00,Monday
128,94937.59800000001
202,550250.5680000001
484,8278822.945620509
533,0.0
2,9, 1, 9, 0, 6, 0.00,60.00,Monday
128,189875.19600000003
202,550250.5680000001
484,10703679.1810435
533,0.0
2,9, 1, 9, 0, 7, 0.00,60.00,Monday
128,171951.19395532343
202,550250.5680000001
484,9877130.564513626
533,0.0
2,9, 1, 9, 0, 8, 0.00,60.00,Monday
128,455776.6407995388
202,550250.5680000001
484,8529882.115833566
533,0.0
2,9, 1, 9, 0, 9, 0.00,60.00,Monday
128,564600.5683649037
202,1238063.7780000002
484,6049370.733824721
533,0.0
2,9, 1, 9, 0,10, 0.00,60.00,Monday
128,464268.22367937316
202,1238063.7780000002
484,4489858.047534825
533,0.0
2,9, 1, 9, 0,11, 0.00,60.00,Monday
128,464268.22367937316
202,1238063.7780000002
484,3110257.3596934592
533,0.0
2,9, 1, 9, 0,12, 0.00,60.00,Monday
128,464268.22367937316
202,1238063.7780000002
484,2030576.0100079293
533,0.0
2,9, 1, 9, 0,13, 0.00,60.00,Monday
128,464268.22367937316
202,1100501.1360000002
484,1707307.4821037985
533,0.0
2,9, 1, 9, 0,14, 0.00,60.00,Monday
128,464268.22367937316
202,1238063.7780000002
484,859831.7608683804
533,0.0
2,9, 1, 9, 0,15, 0.00,60.00,Monday
128,464268.22367937316
202,1238063.7780000002
484,850123.65923805
533,0.0
2,9, 1, 9, 0,16, 0.00,60.00,Monday
128,892182.1298376608
202,1238063.7780000002
484,1143865.7960352644
533,0.0
2,9, 1, 9, 0,17, 0.00,60.00,Monday
128,1506936.2079458162
202,1238063.7780000002
484,1369472.2243281978
533,0.0
2,9, 1, 9, 0,18, 0.00,60.00,Monday
128,859755.9697766172
202,687813.2100000001
484,2647365.9721196005
533,0.0
2,9, 1, 9, 0,19, 0.00,60.00,Monday
128,515853.5818659704
202,550250.5680000001
484,3256507.8813380944
533,0.0
2,9, 1, 9, 0,20, 0.00,60.00,Monday
128,515853.5818659704
202,550250.5680000001
484,3506591.418575855
533,0.0
2,9, 1, 9, 0,21, 0.00,60.00,Monday
128,343902.38791064685
202,550250.5680000001
484,3826162.973074628
533,0.0
2,9, 1, 9, 0,22, 0.00,60.00,Monday
128,343902.38791064685
202,550250.5680000001
484,4061770.195736844
533,0.0
2,9, 1, 9, 0,23, 0.00,60.00,Monday
128,171951.19395532343
202,550250.5680000001
484,0.0
533,0.0
2,9, 1, 9, 0,24, 0.00,60.00,Monday
128,85975.59697766171
202,550250.5680000001
484,298955.4443123322
533,0.0
2,10, 1,10, 0, 1, 0.00,60.00,Tuesday
128,94937.59800000001
202,550250.5680000001
484,1268589.03333908
533,0.0
2,10, 1,10, 0, 2, 0.00,60.00,Tuesday
128,94937.59800000001
202,550250.5680000001
484,1907048.872470424
533,0.0
2,10, 1,10, 0, 3, 0.00,60.00,Tuesday
128,94937.59800000001
202,550250.5680000001
484,2370983.2551167607
533,0.0
2,10, 1,10, 0, 4, 0.00,60.00,Tuesday
128,94937.59800000001
202,550250.5680000001
484,2714091.289839649
533,0.0
2,10, 1,10, 0, 5, 0.00,60.00,Tuesday
128,94937.59800000001
202,550250.5680000001
484,5550020.689651381
533,0.0
2,10, 1,10, 0, 6, 0.00,60.00,Tuesday
128,189875.19600000003
202,550250.5680000001
484,7929272.760301022
533,0.0
2,10, 1,10, 0, 7, 0.00,60.00,Tuesday
128,171951.19395532343
202,550250.5680000001
484,7576279.099822282
533,0.0
2,10, 1,10, 0, 8, 0.00,60.00,Tuesday
128,430712.3423281463
202,550250.5680000001
484,6429711.905677967
533,0.0
2,10, 1,10, 0, 9, 0.00,60.00,Tuesday
128,490433.92043855577
202,1238063.7780000002
484,4121268.52313277
533,0.0
2,10, 1,10, 0,10, 0.00,60.00,Tuesday
128,464268.22367937316
202,1238063.7780000002
484,2797938.0015665884
533,0.0
2,10, 1,10, 0,11, 0.00,60.00,Tuesday
128,464268.22367937316
202,1238063.7780000002
484,1715858.9441444322
533,0.0
2,10, 1,10, 0,12, 0.00,60.00,Tuesday
128,464268.22367937316
202,1238063.7780000002
484,752240.3620087538
533,0.0
2,10, 1,10, 0,13, 0.00,60.00,Tuesday
128,464268.22367937316
202,1100501.1360000002
484,456116.25243138685
533,0.0
2,10, 1,10, 0,14, 0.00,60.00,Tuesday
128,464268.22367937316
202,1238063.7780000002
484,0.0
533,0.0
2,10, 1,10, 0,15, 0.00,60.00,Tuesday
128,464268.22367937316
202,1238063.7780000002
484,0.0
533,0.0
2,10, 1,10, 0,16, 0.00,60.00,Tuesday
128,735097.2226160278
202,1238063.7780000002
484,5110.29784562507
533,0.0
2,10, 1,10, 0,17, 0.00,60.00,Tuesday
128,1489007.4744610917
202,1238063.7780000002
484,437147.5994664991
533,0.0
2,10, 1,10, 0,18, 0.00,60.00,Tuesday
128,859755.9697766172
202,687813.2100000001
484,2016572.6238114997
533,0.0
2,10, 1,10, 0,19, 0.00,60.00,Tuesday
128,515853.5818659704
202,550250.5680000001
484,2761082.413948552
533,0.0
2,10, 1,10, 0,20, 0.00,60.00,Tuesday
128,515853.5818659704
202,550250.5680000001
484,3125838.808447539
533,0.0
2,10, 1,10, 0,21, 0.00,60.00,Tuesday
128,343902.38791064685
202,550250.5680000001
484,3659021.7036739695
533,0.0
2,10, 1,10, 0,22, 0.00,60.00,Tuesday
128,343902.38791064685
202,550250.5680000001
484,4075527.8386722542
533,0.0
2,10, 1,10, 0,23, 0.00,60.00,Tuesday
128,171951.19395532343
202,550250.5680000001
484,0.0
533,0.0
2,10, 1,10, 0,24, 0.00,60.00,Tuesday
128,85975.59697766171
202,550250.5680000001
484,517926.78389919526
533,0.0
2,11, 1,11, 0, 1, 0.00,60.00,Wednesday
128,94937.59800000001
202,550250.5680000001
484,1686472.8087811628
533,0.0
2,11, 1,11, 0, 2, 0.00,60.00,Wednesday
128,94937.59800000001
202,550250.5680000001
484,2445667.2104521957
533,0.0
2,11, 1,11, 0, 3, 0.00,60.00,Wednesday
128,94937.59800000001
202,550250.5680000001
484,2956965.9819195294
533,0.0
2,11, 1,11, 0, 4, 0.00,60.00,Wednesday
128,94937.59800000001
202,550250.5680000001
484,3398349.0957026267
533,0.0
2,11, 1,11, 0, 5, 0.00,60.00,Wednesday
128,94937.59800000001
202,550250.5680000001
484,6361247.399038532
533,0.0
2,11, 1,11, 0, 6, 0.00,60.00,Wednesday
128,189875.19600000003
202,550250.5680000001
484,8742011.89640989
533,0.0
2,11, 1,11, 0, 7, 0.00,60.00,Wednesday
128,171951.19395532343
202,550250.5680000001
484,8224711.15095558
533,0.0
2,11, 1,11, 0, 8, 0.00,60.00,Wednesday
128,438523.19034265104
202,550250.5680000001
484,7128537.924122037
533,0.0
2,11, 1,11, 0, 9, 0.00,60.00,Wednesday
128,532567.4773021752
202,1238063.7780000002
484,4999157.768837915
533,0.0
2,11, 1,11, 0,10, 0.00,60.00,Wednesday
128,464268.22367937316
202,1238063.7780000002
484,3838544.073541037
533,0.0
2,11, 1,11, 0,11, 0.00,60.00,Wednesday
128,464268.22367937316
202,1238063.7780000002
484,3042585.7268450824
533,0.0
2,11, 1,11, 0,12, 0.00,60.00,Wednesday
128,464268.22367937316
202,1238063.7780000002
484,2861428.1759552206
533,0.0
2,11, 1,11, 0,13, 0.00,60.00,Wednesday
128,652274.9143166884
202,1100501.1360000002
484,3211715.879600107
533,0.0
2,11, 1,11, 0,14, 0.00,60.00,Wednesday
128,642815.6685177201
202,1238063.7780000002
484,2677097.818082897
533,0.0
2,11, 1,11, 0,15, 0.00,60.00,Wednesday
128,1039947.8464696468
202,1238063.7780000002
484,2569216.576336609
533,0.0
2,11, 1,11, 0,16, 0.00,60.00,Wednesday
128,1338563.052503337
202,1238063.7780000002
484,2513204.881445468
533,0.0