Program Version,EnergyPlus, Version 22.1.0-ed759b17ee, YMD=2022.05.23 00:39
1,5,Environment Title[],Latitude[deg],Longitude[deg],Time Zone[],Elevation[m]
2,8,Day of Simulation[],Month[],Day of Month[],DST Indicator[1=yes 0=no],Hour[],StartMinute[],EndMinute[],DayType
3,5,Cumulative Day of Simulation[],Month[],Day of Month[],DST Indicator[1=yes 0=no],DayType  ! When Daily Report Variables Requested
4,2,Cumulative Days of Simulation[],Month[]  ! When Monthly Report Variables Requested
5,1,Cumulative Days of Simulation[] ! When Run Period Report Variables Requested
6,1,Calendar Year of Simulation[] ! When Annual Report Variables Requested
7,1,Environment,Site Outdoor Air Drybulb Temperature [C] !Hourly
8,1,Environment,Site Outdoor Air Barometric Pressure [Pa] !Hourly
203,1,OFFICESHOEBOX_BDC533DE 2013::LARGEOFFICE::OPENOFFICE_INFILTRATION,Infiltration Sensible Heat Loss Energy [J] !Hourly
204,1,OFFICESHOEBOX_BDC533DE 2013::LARGEOFFICE::OPENOFFICE_INFILTRATION,Infiltration Total Heat Loss Energy [J] !Hourly
205,1,OFFICESHOEBOX_BDC533DE 2013::LARGEOFFICE::OPENOFFICE_INFILTRATION,Infiltration Current Density Volume Flow Rate [m3/s] !Hourly
206,1,OFFICESHOEBOX_BDC533DE 2013::LARGEOFFICE::OPENOFFICE_INFILTRATION,Infiltration Standard Density Volume Flow Rate [m3/s] !Hourly
207,1,OFFICESHOEBOX_BDC533DE 2013::LARGEOFFICE::OPENOFFICE_INFILTRATION,Infiltration Air Change Rate [ach] !Hourly
342,1,OFFICESHOEBOX_BDC533DE,Zone Air Temperature [C] !Hourly
588,1,NODE 3,System Node Specific Heat [J/kg-K] !Hourly
589,1,NODE 2,System Node Specific Heat [J/kg-K] !Hourly
590,1,NODE 1,System Node Specific Heat [J/kg-K] !Hourly
591,1,MODEL OUTDOOR AIR NODE,System Node Specific Heat [J/kg-K] !Hourly
592,1,OFFICESHOEBOX_BDC533DE IDEAL LOADS AIR SYSTEM OUTDOOR AIR INLET NODE,System Node Specific Heat [J/kg-K] !Hourly
End of Data Dictionary
1,RUN PERIOD 1,  41.98, -87.92,  -6.00, 201.00
2,1, 1, 1, 0, 1, 0.00,60.00,Sunday
7,-7.825
8,99291.66666666667
203,1845420.282012988
204,2023542.6689448769
205,0.018166666130741017
206,0.018440433098317013
207,0.4359999871377844
342,15.6
588,1009.3603381525917
589,1009.3603381525917
590,1009.2587222411263
591,1007.5887796510409
592,1007.5887796510409
2,1, 1, 1, 0, 2, 0.00,60.00,Sunday
7,-11.908333333333331
8,99558.33333333333
203,2202781.79174348
204,2394832.504445055
205,0.018449866495379223
206,0.018790526987381012
207,0.4427967958891013
342,15.6
588,1008.5992168294039
589,1008.5992168294039
590,1008.4748425210558
591,1006.7008500986567
592,1006.7008500986567
2,1, 1, 1, 0, 3, 0.00,60.00,Sunday
7,-11.35
8,99541.66666666667
203,2153147.0749360453
204,2272599.1620673616
205,0.018399915163239907
206,0.018745763608179897
207,0.44159796391775785
342,15.599999999999996
588,1007.9802673652597
589,1007.9802673652597
590,1007.9031166453087
591,1006.7972019377115
592,1006.7972019377115
2,1, 1, 1, 0, 4, 0.00,60.00,Sunday
7,-11.1
8,99500.0
203,2130244.940975038
204,2206437.755860404
205,0.018376018137196908
206,0.01871930080213759
207,0.4410244352927257
342,15.6
588,1007.5974876013682
589,1007.5974876013682
590,1007.5487416727104
591,1006.8422375249667
592,1006.8422375249667
2,1, 1, 1, 0, 5, 0.00,60.00,Sunday
7,-10.808333333333332
8,99500.0
203,2104653.2330141715
204,2150705.757449177
205,0.018351174487915154
206,0.018697636596175623
207,0.4404281877099638
342,15.6
588,1007.3527926923183
589,1007.3527926923183
590,1007.3228757601659
591,1006.8953972726375
592,1006.8953972726375
2,1, 1, 1, 0, 6, 0.00,60.00,Sunday
7,-10.600000000000001
8,99500.0
203,2086396.670005603
204,2114134.6997996313
205,0.018333920123707655
206,0.018682173429449857
207,0.44001408296898364
342,15.6
588,1007.2092816008206
589,1007.2092816008206
590,1007.1916046858718
591,1006.9338903775507
592,1006.9338903775507
2,1, 1, 1, 0, 7, 0.00,60.00,Sunday
7,-10.600000000000001
8,99500.0
203,2086414.827508327
204,2100441.6778311073
205,0.01833190423507057
206,0.018681092017594155
207,0.43996570164169374
342,15.6
588,1007.1352499193549
589,1007.1352499193549
590,1007.1312744846701
591,1007.0009443902736
592,1007.0009443902736
2,1, 1, 1, 0, 8, 0.00,60.00,Sunday
7,-10.25
8,99500.0
203,2055843.4881472483
204,2057893.1921137702
205,0.0183057484134193
206,0.01865432623876274
207,0.4393379619220632
342,15.6
588,1007.134108330531
589,1007.134108330531
590,1007.1382195412947
591,1007.1191654362274
592,1007.1191654362274
2,1, 1, 1, 0, 9, 0.00,60.00,Sunday
7,-9.358333333333334
8,99500.0
203,1978262.1172132806
204,1976451.363296523
205,0.0182433228931671
206,0.018590092844101676
207,0.4378397494360104
342,15.6
588,1007.1696519555397
589,1007.1696519555397
590,1007.1768151109068
591,1007.1937199923728
592,1007.1937199923728
2,1, 1, 1, 0,10, 0.00,60.00,Sunday
7,-7.616666666666668
8,99500.0
203,1828252.2490911065
204,1825505.9860834011
205,0.01812359860886956
206,0.01846737863988474
207,0.43496636661286936
342,15.600000000000001
588,1007.2137985377644
589,1007.2137985377644
590,1007.2216384355985
591,1007.2474529984428
592,1007.2474529984428
2,1, 1, 1, 0,11, 0.00,60.00,Sunday
7,-5.708333333333333
8,99441.66666666667
203,1665064.2043297589
204,1637738.9458690383
205,0.01799061681923073
206,0.018319808636791547
207,0.4317748036615375
342,15.599999999999996
588,1007.2835230322468
589,1007.2835230322468
590,1007.3057113667414
591,1007.5648575006793
592,1007.5648575006793
2,1, 1, 1, 0,12, 0.00,60.00,Sunday
7,-4.008333333333334
8,99341.66666666667
203,1521117.363939677
204,1464872.0602341904
205,0.017872692627291912
206,0.018178067301035553
207,0.42894462305500597
342,15.6
588,1007.4763222302445
589,1007.4763222302445
590,1007.5197767143131
591,1008.0569693853522
592,1008.0569693853522
2,1, 1, 1, 0,13, 0.00,60.00,Sunday
7,-2.658333333333333
8,99241.66666666667
203,1407934.5328786285
204,1341895.8933059156
205,0.017781964839429943
206,0.01806299604169417
207,0.4267671561463186
342,15.6
588,1007.7626898156171
589,1007.7626898156171
590,1007.8138564116433
591,1008.4484675007988
592,1008.4484675007988
2,1, 1, 1, 0,14, 0.00,60.00,Sunday
7,-1.5583333333333336
8,99200.0
203,1317241.1129620143
204,1254379.3791628962
205,0.017710369186792266
206,0.01797799782826511
207,0.4250488604830143
342,15.6
588,1008.068286125822
589,1008.068286125822
590,1008.1176365452552
591,1008.7245405072114
592,1008.7245405072114
2,1, 1, 1, 0,15, 0.00,60.00,Sunday
7,-1.0999999999999999
8,99200.0
203,1279901.5944745482
204,1224145.8821153056
205,0.01768154062674669
206,0.01794441767640145
207,0.42435697504192055
342,15.6
588,1008.3520420108302
589,1008.3520420108302
590,1008.3964212509642
591,1008.9357450420434
592,1008.9357450420434
2,1, 1, 1, 0,16, 0.00,60.00,Sunday
7,-1.0999999999999999
8,99200.0
203,1279946.7668634045
204,1222948.1675207797
205,0.017681357338435507
206,0.017940196894742386
207,0.4243525761224521
342,15.6
588,1008.6131734823515
589,1008.6131734823515
590,1008.6572608078724
591,1009.20873907145
592,1009.20873907145
2,1, 1, 1, 0,17, 0.00,60.00,Sunday
7,-1.0999999999999999
8,99200.0
203,1279969.3530578322
204,1234834.3733264687
205,0.017683106864202686
206,0.017938086503912834
207,0.42439456474086446
342,15.6
588,1008.8709695141492
589,1008.8709695141492
590,1008.9085298536087
591,1009.3452743672669
592,1009.3452743672669
2,1, 1, 1, 0,18, 0.00,60.00,Sunday
7,-1.45
8,99200.0
203,1308484.0398132736
204,1283369.9987038246
205,0.017708854042579415
206,0.017961489617845477
207,0.42501249702190597
342,15.6
588,1009.0601218475173
589,1009.0601218475173
590,1009.0839129007401
591,1009.3266408590174
592,1009.3266408590174
2,1, 1, 1, 0,19, 0.00,60.00,Sunday
7,-1.9916666666666671
8,99200.0
203,1352744.7589201047
204,1338811.1348989266
205,0.017745883349472365
206,0.017997621231813636
207,0.42590120038733675
342,15.6
588,1009.165894234285
589,1009.165894234285
590,1009.1758740258875
591,1009.3102643711842
592,1009.3102643711842
2,1, 1, 1, 0,20, 0.00,60.00,Sunday
7,-1.5583333333333336
8,99200.0
203,1317363.6911497077
204,1296029.7561718058
205,0.017716493283524367
206,0.01796685040971369
207,0.4251958388045847
342,15.6
588,1009.2250638305004
589,1009.2250638305004
590,1009.238170070562
591,1009.44432716444
592,1009.44432716444
2,1, 1, 1, 0,21, 0.00,60.00,Sunday
7,-1.45
8,99141.66666666667
203,1307762.153863135
204,1277936.1038226252
205,0.017708156538065328
206,0.017946214656271057
207,0.42499575691356783
342,15.600000000000001
588,1009.323394496666
589,1009.323394496666
590,1009.3427571623691
591,1009.6312329391509
592,1009.6312329391509
2,1, 1, 1, 0,22, 0.00,60.00,Sunday
7,-1.3500000000000003
8,99100.0
203,1299086.6965861996
204,1271743.5602670303
205,0.017702004482827022
206,0.017930666865704263
207,0.4248481075878486
342,15.599999999999996
588,1009.4395957423525
589,1009.4395957423525
590,1009.4577891925629
591,1009.7224719308651
592,1009.7224719308651
2,1, 1, 1, 0,23, 0.00,60.00,Sunday
7,-1.45
8,99041.66666666667
203,1306457.3736262575
204,1288989.6187264314
205,0.017709977665463252
206,0.01792679501391188
207,0.4250394639711181
342,15.6
588,1009.5354251347302
589,1009.5354251347302
590,1009.5474703719383
591,1009.7166136495445
592,1009.7166136495445
2,1, 1, 1, 0,24, 0.00,60.00,Sunday
7,-1.7
8,99000.0
203,1326230.5346296036
204,1335793.607154864
205,0.017730276624312997
206,0.017939448795027863
207,0.4255266389835119
342,15.6
588,1009.5742357206537
589,1009.5742357206537
590,1009.5699121178435
591,1009.4773917564307
592,1009.4773917564307
End of Data
 Number of Records Written=         312
